<VTKFile type="UnstructuredGrid" version="0.1">
<UnstructuredGrid>
<Piece NumberOfPoints="29" NumberOfCells="0">
<Points>
<DataArray NumberOfComponents="3" type="Float64" format="ascii">
-0.000343741 -1.28003e-06 0.000573484
0.00015405 5.62239e-05 0.000578576
-0.000171204 0.000304213 0.000514797
-0.000296976 0.000369892 6.14349e-05
-0.000383393 -0.000274975 0.000373206
4.82636e-05 -0.000413119 0.000513431
-7.99825e-05 -0.000268098 0.000700696
-0.000311741 -0.000104886 0.000191958
-0.000134764 -6.36309e-05 0.000235417
0.000180213 0.000159326 0.00047776
7.42801e-05 -0.000427609 0.000835572
0.000317361 -0.000184728 0.000304807
0.000115913 -0.00044926 9.96601e-05
-5.70885e-06 -0.000440001 0.000275354
-0.000286897 0.000126009 0.000861187
0.000276239 -7.50271e-05 0.00067207
-0.0003553 -9.13529e-05 0.000129535
3.0177e-05 -2.07845e-05 0.000192374
-5.19966e-05 4.2252e-06 0.000659462
0.000423585 0.000144425 9.72952e-05
5.70832e-05 -0.000460105 0.000528104
0.000258955 -0.000326864 0.000528099
0.000107143 -0.000354501 0.000926331
0.000147609 0.000143821 0.000643294
1.59259e-05 -3.85826e-06 0.000291015
-0.00011478 -0.00027545 0.000514614
-6.71939e-05 0.000115406 0.000264981
3.39056e-06 -0.000221417 0.000150926
-0.000170387 -0.000171892 0.000432027
</DataArray>
</Points>
<PointData Scalars="radius">
<DataArray type="Float64" Name="radius" NumberOfComponents="1" format="ascii">
1.08708e-05
1.08708e-05
1.08708e-05
1.08708e-05
1.08708e-05
1.08708e-05
1.08708e-05
1.08708e-05
1.08708e-05
1.08708e-05
1.08708e-05
1.08708e-05
1.08708e-05
1.08708e-05
1.08708e-05
1.08708e-05
1.08708e-05
1.08708e-05
1.08708e-05
1.08708e-05
1.08708e-05
1.08708e-05
1.08708e-05
1.08708e-05
1.08708e-05
1.08708e-05
1.08708e-05
1.08708e-05
1.08708e-05
</DataArray>
<DataArray type="Int32" Name="particleTag" NumberOfComponents="1" format="ascii">
1
1
1
1
1
1
1
1
1
1
1
1
1
1
1
1
1
1
1
1
1
1
1
1
1
1
1
1
1
</DataArray>
<DataArray type="Float64" Name="particleMass" NumberOfComponents="1" format="ascii">
1.309e-06
1.309e-06
1.309e-06
1.309e-06
1.309e-06
1.309e-06
1.309e-06
1.309e-06
1.309e-06
1.309e-06
1.309e-06
1.309e-06
1.309e-06
1.309e-06
1.309e-06
1.309e-06
1.309e-06
1.309e-06
1.309e-06
1.309e-06
1.309e-06
1.309e-06
1.309e-06
1.309e-06
1.309e-06
1.309e-06
1.309e-06
1.309e-06
1.309e-06
</DataArray>
<DataArray type="Int32" Name="Id" NumberOfComponents="1" format="ascii">
3917
14223
33278
63916
68909
76069
109506
219614
248177
276037
276235
311758
333628
359441
359759
376079
396732
432590
440376
444056
447345
472071
544980
549746
571645
597708
622953
627953
713590
</DataArray>
<DataArray type="Float64" Name="velocity" NumberOfComponents="3" format="ascii">
5.18289e-05 -4.15976e-05 2.69686e-06
-5.41396e-05 1.87364e-05 -1.4731e-05
5.80295e-05 2.62495e-05 -2.07901e-05
-7.15058e-05 -0.000216373 -4.3064e-05
-6.7097e-06 -1.65737e-06 -2.42975e-06
1.65753e-05 1.99662e-05 8.25721e-07
-1.75036e-05 -1.05371e-06 3.02699e-05
-0.000154283 0.000129878 -2.85785e-05
2.66742e-05 -4.14753e-05 0.000160681
-5.63156e-06 9.53557e-06 4.12665e-06
-2.50395e-05 -1.04725e-06 -3.35003e-05
-0.000180473 5.57446e-05 1.58602e-05
-0.000113645 0.000192791 -4.77848e-05
-1.28431e-05 -2.26186e-05 -4.77821e-06
-1.25618e-05 4.04542e-05 -3.61624e-05
-8.28278e-05 -3.03122e-05 -2.1744e-05
0.000109978 6.06391e-05 1.13858e-05
-4.51428e-06 3.34194e-05 -2.3785e-05
5.55581e-05 5.75918e-05 -2.67903e-06
4.44737e-05 2.38756e-05 -4.37275e-05
-0.000191895 -7.26959e-05 1.33718e-05
-3.81113e-06 -7.90956e-06 1.99527e-05
-1.29441e-05 0.000104862 -1.74714e-05
8.32697e-07 7.70745e-05 -1.02728e-05
7.68437e-05 -4.04106e-05 1.51744e-05
-3.05875e-05 -4.05917e-05 4.18861e-06
5.45753e-06 8.11145e-06 -9.69707e-06
6.81244e-05 -0.00013074 2.12805e-05
-2.06027e-05 7.31275e-06 -1.58797e-06
</DataArray>
<DataArray type="Float64" Name="angular velocity" NumberOfComponents="3" format="ascii">
-1.39006e+06 -4.32672e+06 944153
-1.02563e+06 4.08107e+06 -2.13377e+06
5.52234e+06 3.48241e+06 67102.1
3.30696e+06 4.51485e+06 -380200
4.65914e+06 1.967e+06 -4.3575e+06
-1.61618e+06 1.8844e+06 3.24868e+06
2.05849e+06 -4.57587e+06 2.47985e+06
-3.09107e+06 363148 -2.37569e+06
-2.18043e+06 1.7471e+06 4.12667e+06
2.26059e+06 -856665 5.91099e+06
1.78918e+06 672169 4.2103e+06
388034 2.59955e+06 90099.3
-362907 -468161 -1.07164e+06
190265 -2.45982e+06 2.90499e+06
3.88835e+06 -1.88096e+06 -7.51465e+06
1.02285e+06 -306321 3.92007e+06
-1.0045e+06 1.59027e+06 3.33167e+06
-774490 794873 69329.1
462899 -2.59034e+06 -521170
-1.72268e+06 -5.01249e+06 -2.53118e+06
-559240 2.91489e+06 -5.90158e+06
4.803e+06 796856 1.86941e+06
-2.47645e+06 82175.4 350734
1.55844e+06 -1.0725e+06 -2.12496e+06
567529 1.43815e+06 -1.03086e+06
1.47384e+06 5.80917e+06 3.54403e+06
3.62511e+06 860981 -1.5013e+06
-2.16164e+06 171537 -2.53218e+06
2.15323e+06 -2.17331e+06 -3.13971e+06
</DataArray>
<DataArray type="Float64" Name="displacement" NumberOfComponents="3" format="ascii">
-0.000204511 5.79174e-05 0.000375185
0.000404292 -4.42523e-05 0.00017184
0.000253778 0.000533763 0.000130988
-0.000303005 0.000541365 -0.000552682
-0.000437496 -0.000721894 -8.41737e-05
-0.000111201 3.56968e-05 7.27496e-05
0.000115036 -0.000605004 -0.000280964
-0.000153873 -0.000567574 -0.000529458
-0.000309416 -0.00046087 -0.00026512
0.000615175 0.000103346 -0.000305587
8.01889e-05 -0.000484565 -0.000100799
0.00023097 -0.000362769 -0.000122779
0.000114423 -0.000468612 -0.000702367
-0.000344362 -0.000351945 -0.000357345
-0.000434516 3.38648e-05 0.00039453
0.000264904 -6.46329e-05 -0.000319166
-0.000320919 -0.000521846 -2.48377e-05
-9.978e-05 1.04597e-05 3.09304e-05
0.000149141 0.000422107 0.000239383
0.000672274 0.000103865 -0.000128674
-0.000277159 -0.000579953 0.000187413
-7.93361e-05 -0.000207195 -0.000340398
0.000288233 -0.000260486 0.000328947
0.000434898 8.18803e-05 -0.000336032
-0.000159424 0.000409558 -0.000490178
-0.000349564 -4.84796e-05 6.28368e-06
-0.000278835 0.000545998 -0.000108287
0.000212542 -0.000207015 -0.000279157
-0.00014089 -0.000220803 -0.000545667
</DataArray>
<DataArray type="Float64" Name="initial position" NumberOfComponents="3" format="ascii">
-0.00013923 -5.91974e-05 0.000198299
-0.000250241 0.000100476 0.000406735
-0.000424982 -0.000229551 0.000383808
6.02922e-06 -0.000171474 0.000614117
5.4103e-05 0.000446919 0.00045738
0.000159464 -0.000448816 0.000440682
-0.000195019 0.000336906 0.00098166
-0.000157869 0.000462688 0.000721416
0.000174651 0.000397239 0.000500536
-0.000434962 5.59796e-05 0.000783347
-5.90883e-06 5.69558e-05 0.00093637
8.6391e-05 0.00017804 0.000427586
1.48999e-06 1.93522e-05 0.000802027
0.000338653 -8.8056e-05 0.000632699
0.000147619 9.21443e-05 0.000466657
1.13352e-05 -1.03942e-05 0.000991236
-3.43816e-05 0.000430493 0.000154373
0.000129957 -3.12441e-05 0.000161444
-0.000201138 -0.000417881 0.000420078
-0.000248688 4.05601e-05 0.000225969
0.000334242 0.000119848 0.000340691
0.000338292 -0.000119669 0.000868497
-0.00018109 -9.40149e-05 0.000597384
-0.000287289 6.19408e-05 0.000979326
0.00017535 -0.000413416 0.000781193
0.000234784 -0.00022697 0.00050833
0.000211641 -0.000430592 0.000373268
-0.000209152 -1.44022e-05 0.000430084
-2.94972e-05 4.8911e-05 0.000977695
</DataArray>
<DataArray type="Int32" Name="proc_id" NumberOfComponents="1" format="ascii">
3
3
3
1
2
3
3
1
1
2
4
2
1
2
4
3
1
1
3
1
3
3
4
3
2
3
2
1
2
</DataArray>
</PointData>
<Cells>
<DataArray type="Int32" NumberOfComponents="1" Name="connectivity" format="ascii">
</DataArray><DataArray type="Int32" NumberOfComponents="1" Name="offsets" format="ascii">
</DataArray>
<DataArray type="UInt8" NumberOfComponents="1" Name="types" format="ascii">
</DataArray>
</Cells>
<CellData>
<DataArray type="Float64" Name="bondStrain" NumberOfComponents="1" format="ascii">
</DataArray>
<DataArray type="Int32" Name="bondTag" NumberOfComponents="1" format="ascii">
</DataArray>
</CellData>
</Piece>
</UnstructuredGrid>
</VTKFile>
