<VTKFile type="UnstructuredGrid" version="0.1">
<UnstructuredGrid>
<Piece NumberOfPoints="29" NumberOfCells="0">
<Points>
<DataArray NumberOfComponents="3" type="Float64" format="ascii">
-0.000342705 -2.11152e-06 0.000573538
0.000152968 5.65985e-05 0.000578281
-0.000170044 0.000304737 0.000514381
-0.000298405 0.000365567 6.05741e-05
-0.000383527 -0.000275008 0.000373157
4.85949e-05 -0.00041272 0.000513448
-8.03324e-05 -0.000268119 0.000701301
-0.000314825 -0.00010229 0.000191387
-0.000134231 -6.44599e-05 0.000238629
0.000180101 0.000159516 0.000477843
7.37796e-05 -0.00042763 0.000834902
0.000313753 -0.000183614 0.000305124
0.000113642 -0.000445406 9.87049e-05
-5.96557e-06 -0.000440453 0.000275258
-0.000287148 0.000126818 0.000860464
0.000274583 -7.5633e-05 0.000671635
-0.000353102 -9.01407e-05 0.000129763
3.00867e-05 -2.01164e-05 0.000191899
-5.08861e-05 5.37641e-06 0.000659408
0.000424474 0.000144903 9.64211e-05
5.32474e-05 -0.000461558 0.000528371
0.000258879 -0.000327022 0.000528498
0.000106884 -0.000352404 0.000925982
0.000147626 0.000145362 0.000643088
1.7462e-05 -4.66603e-06 0.000291318
-0.000115391 -0.000276261 0.000514697
-6.70848e-05 0.000115569 0.000264787
4.75231e-06 -0.00022403 0.000151352
-0.000170799 -0.000171746 0.000431996
</DataArray>
</Points>
<PointData Scalars="radius">
<DataArray type="Float64" Name="radius" NumberOfComponents="1" format="ascii">
1.33835e-05
1.33835e-05
1.33835e-05
1.33835e-05
1.33835e-05
1.33835e-05
1.33835e-05
1.33835e-05
1.33835e-05
1.33835e-05
1.33835e-05
1.33835e-05
1.33835e-05
1.33835e-05
1.33835e-05
1.33835e-05
1.33835e-05
1.33835e-05
1.33835e-05
1.33835e-05
1.33835e-05
1.33835e-05
1.33835e-05
1.33835e-05
1.33835e-05
1.33835e-05
1.33835e-05
1.33835e-05
1.33835e-05
</DataArray>
<DataArray type="Int32" Name="particleTag" NumberOfComponents="1" format="ascii">
1
1
1
1
1
1
1
1
1
1
1
1
1
1
1
1
1
1
1
1
1
1
1
1
1
1
1
1
1
</DataArray>
<DataArray type="Float64" Name="particleMass" NumberOfComponents="1" format="ascii">
1.309e-06
1.309e-06
1.309e-06
1.309e-06
1.309e-06
1.309e-06
1.309e-06
1.309e-06
1.309e-06
1.309e-06
1.309e-06
1.309e-06
1.309e-06
1.309e-06
1.309e-06
1.309e-06
1.309e-06
1.309e-06
1.309e-06
1.309e-06
1.309e-06
1.309e-06
1.309e-06
1.309e-06
1.309e-06
1.309e-06
1.309e-06
1.309e-06
1.309e-06
</DataArray>
<DataArray type="Int32" Name="Id" NumberOfComponents="1" format="ascii">
3917
14223
33278
63916
68909
76069
109506
219614
248177
276037
276235
311758
333628
359441
359759
376079
396732
432590
440376
444056
447345
472071
544980
549746
571645
597708
622953
627953
713590
</DataArray>
<DataArray type="Float64" Name="velocity" NumberOfComponents="3" format="ascii">
2.34715e-09 -1.88381e-09 1.22132e-10
-2.4518e-09 8.48508e-10 -6.67116e-10
2.62795e-09 1.18875e-09 -9.4151e-10
-3.23825e-09 -9.7988e-09 -1.95022e-09
-3.03859e-10 -7.50564e-11 -1.10035e-10
7.50638e-10 9.04198e-10 3.7394e-11
-7.92678e-10 -4.7719e-11 1.37082e-09
-6.98694e-09 5.88173e-09 -1.29422e-09
1.20798e-09 -1.87827e-09 7.2767e-09
-2.55034e-10 4.31833e-10 1.86882e-10
-1.13395e-09 -4.74262e-11 -1.51711e-09
-8.17298e-09 2.52448e-09 7.18253e-10
-5.14661e-09 8.73081e-09 -2.16401e-09
-5.81619e-10 -1.02432e-09 -2.16389e-10
-5.68878e-10 1.83203e-09 -1.63767e-09
-3.75098e-09 -1.37273e-09 -9.84713e-10
4.98051e-09 2.74614e-09 5.15621e-10
-2.04436e-10 1.51345e-09 -1.07714e-09
2.51603e-09 2.60814e-09 -1.21324e-10
2.01406e-09 1.08124e-09 -1.98027e-09
-8.69024e-09 -3.29215e-09 6.05564e-10
-1.72593e-10 -3.58196e-10 9.03587e-10
-5.86196e-10 4.74882e-09 -7.9122e-10
3.771e-11 3.49044e-09 -4.65221e-10
3.47999e-09 -1.83005e-09 6.87197e-10
-1.3852e-09 -1.83826e-09 1.89688e-10
2.47153e-10 3.67339e-10 -4.39147e-10
3.08512e-09 -5.92076e-09 9.63718e-10
-9.33026e-10 3.31169e-10 -7.19138e-11
</DataArray>
<DataArray type="Float64" Name="angular velocity" NumberOfComponents="3" format="ascii">
-1.39006e+06 -4.32672e+06 944153
-1.02563e+06 4.08107e+06 -2.13377e+06
5.52234e+06 3.48241e+06 67102.1
3.30696e+06 4.51485e+06 -380200
4.65914e+06 1.967e+06 -4.3575e+06
-1.61618e+06 1.8844e+06 3.24868e+06
2.05849e+06 -4.57587e+06 2.47985e+06
-3.09107e+06 363148 -2.37569e+06
-2.18043e+06 1.7471e+06 4.12667e+06
2.26059e+06 -856665 5.91099e+06
1.78918e+06 672169 4.2103e+06
388034 2.59955e+06 90099.3
-362907 -468161 -1.07164e+06
190265 -2.45982e+06 2.90499e+06
3.88835e+06 -1.88096e+06 -7.51465e+06
1.02285e+06 -306321 3.92007e+06
-1.0045e+06 1.59027e+06 3.33167e+06
-774490 794873 69329.1
462899 -2.59034e+06 -521170
-1.72268e+06 -5.01249e+06 -2.53118e+06
-559240 2.91489e+06 -5.90158e+06
4.803e+06 796856 1.86941e+06
-2.47645e+06 82175.4 350734
1.55844e+06 -1.0725e+06 -2.12496e+06
567529 1.43815e+06 -1.03086e+06
1.47384e+06 5.80917e+06 3.54403e+06
3.62511e+06 860981 -1.5013e+06
-2.16164e+06 171537 -2.53218e+06
2.15323e+06 -2.17331e+06 -3.13971e+06
</DataArray>
<DataArray type="Float64" Name="displacement" NumberOfComponents="3" format="ascii">
-0.000203475 5.70859e-05 0.000375239
0.000403209 -4.38778e-05 0.000171546
0.000254938 0.000534288 0.000130573
-0.000304434 0.00053704 -0.000553543
-0.00043763 -0.000721927 -8.42222e-05
-0.000110869 3.6096e-05 7.27661e-05
0.000114686 -0.000605025 -0.000280359
-0.000156957 -0.000564978 -0.000530029
-0.000308882 -0.000461699 -0.000261908
0.000615063 0.000103537 -0.000305504
7.96884e-05 -0.000484586 -0.000101468
0.000227362 -0.000361654 -0.000122462
0.000112152 -0.000464758 -0.000703322
-0.000344618 -0.000352397 -0.000357441
-0.000434767 3.46734e-05 0.000393807
0.000263248 -6.52388e-05 -0.000319601
-0.00031872 -0.000520634 -2.46101e-05
-9.98703e-05 1.11277e-05 3.0455e-05
0.000150252 0.000423258 0.00023933
0.000673163 0.000104343 -0.000129548
-0.000280995 -0.000581406 0.000187681
-7.94123e-05 -0.000207353 -0.00034
0.000287974 -0.00025839 0.000328597
0.000434915 8.3421e-05 -0.000336238
-0.000157888 0.00040875 -0.000489874
-0.000350175 -4.9291e-05 6.36741e-06
-0.000278726 0.00054616 -0.000108481
0.000213904 -0.000209628 -0.000278732
-0.000141302 -0.000220657 -0.000545699
</DataArray>
<DataArray type="Float64" Name="initial position" NumberOfComponents="3" format="ascii">
-0.00013923 -5.91974e-05 0.000198299
-0.000250241 0.000100476 0.000406735
-0.000424982 -0.000229551 0.000383808
6.02922e-06 -0.000171474 0.000614117
5.4103e-05 0.000446919 0.00045738
0.000159464 -0.000448816 0.000440682
-0.000195019 0.000336906 0.00098166
-0.000157869 0.000462688 0.000721416
0.000174651 0.000397239 0.000500536
-0.000434962 5.59796e-05 0.000783347
-5.90883e-06 5.69558e-05 0.00093637
8.6391e-05 0.00017804 0.000427586
1.48999e-06 1.93522e-05 0.000802027
0.000338653 -8.8056e-05 0.000632699
0.000147619 9.21443e-05 0.000466657
1.13352e-05 -1.03942e-05 0.000991236
-3.43816e-05 0.000430493 0.000154373
0.000129957 -3.12441e-05 0.000161444
-0.000201138 -0.000417881 0.000420078
-0.000248688 4.05601e-05 0.000225969
0.000334242 0.000119848 0.000340691
0.000338292 -0.000119669 0.000868497
-0.00018109 -9.40149e-05 0.000597384
-0.000287289 6.19408e-05 0.000979326
0.00017535 -0.000413416 0.000781193
0.000234784 -0.00022697 0.00050833
0.000211641 -0.000430592 0.000373268
-0.000209152 -1.44022e-05 0.000430084
-2.94972e-05 4.8911e-05 0.000977695
</DataArray>
<DataArray type="Int32" Name="proc_id" NumberOfComponents="1" format="ascii">
3
3
3
1
2
3
3
1
2
2
4
2
1
2
4
3
1
1
3
1
3
3
4
3
2
3
2
1
2
</DataArray>
</PointData>
<Cells>
<DataArray type="Int32" NumberOfComponents="1" Name="connectivity" format="ascii">
</DataArray><DataArray type="Int32" NumberOfComponents="1" Name="offsets" format="ascii">
</DataArray>
<DataArray type="UInt8" NumberOfComponents="1" Name="types" format="ascii">
</DataArray>
</Cells>
<CellData>
<DataArray type="Float64" Name="bondStrain" NumberOfComponents="1" format="ascii">
</DataArray>
<DataArray type="Int32" Name="bondTag" NumberOfComponents="1" format="ascii">
</DataArray>
</CellData>
</Piece>
</UnstructuredGrid>
</VTKFile>
