<VTKFile type="UnstructuredGrid" version="0.1">
<UnstructuredGrid>
<Piece NumberOfPoints="29" NumberOfCells="0">
<Points>
<DataArray NumberOfComponents="3" type="Float64" format="ascii">
-0.000342705 -2.11156e-06 0.000573538
0.000152968 5.65985e-05 0.000578281
-0.000170044 0.000304737 0.000514381
-0.000298405 0.000365566 6.05741e-05
-0.000383527 -0.000275008 0.000373157
4.8595e-05 -0.00041272 0.000513448
-8.03324e-05 -0.000268119 0.000701301
-0.000314825 -0.00010229 0.000191387
-0.000134231 -6.446e-05 0.000238629
0.000180101 0.000159516 0.000477843
7.37796e-05 -0.00042763 0.000834902
0.000313753 -0.000183614 0.000305124
0.000113642 -0.000445406 9.87049e-05
-5.96558e-06 -0.000440453 0.000275258
-0.000287148 0.000126818 0.000860464
0.000274583 -7.5633e-05 0.000671635
-0.000353102 -9.01407e-05 0.000129763
3.00867e-05 -2.01164e-05 0.000191899
-5.0886e-05 5.37646e-06 0.000659408
0.000424474 0.000144903 9.64211e-05
5.32472e-05 -0.000461558 0.000528371
0.000258879 -0.000327022 0.000528498
0.000106884 -0.000352404 0.000925982
0.000147626 0.000145362 0.000643088
1.7462e-05 -4.66606e-06 0.000291318
-0.000115391 -0.000276261 0.000514697
-6.70848e-05 0.000115569 0.000264787
4.75237e-06 -0.00022403 0.000151352
-0.000170799 -0.000171746 0.000431996
</DataArray>
</Points>
<PointData Scalars="radius">
<DataArray type="Float64" Name="radius" NumberOfComponents="1" format="ascii">
1.51146e-05
1.51146e-05
1.51146e-05
1.51146e-05
1.51146e-05
1.51146e-05
1.51146e-05
1.51146e-05
1.51146e-05
1.51146e-05
1.51146e-05
1.51146e-05
1.51146e-05
1.51146e-05
1.51146e-05
1.51146e-05
1.51146e-05
1.51146e-05
1.51146e-05
1.51146e-05
1.51146e-05
1.51146e-05
1.51146e-05
1.51146e-05
1.51146e-05
1.51146e-05
1.51146e-05
1.51146e-05
1.51146e-05
</DataArray>
<DataArray type="Int32" Name="particleTag" NumberOfComponents="1" format="ascii">
1
1
1
1
1
1
1
1
1
1
1
1
1
1
1
1
1
1
1
1
1
1
1
1
1
1
1
1
1
</DataArray>
<DataArray type="Float64" Name="particleMass" NumberOfComponents="1" format="ascii">
1.309e-06
1.309e-06
1.309e-06
1.309e-06
1.309e-06
1.309e-06
1.309e-06
1.309e-06
1.309e-06
1.309e-06
1.309e-06
1.309e-06
1.309e-06
1.309e-06
1.309e-06
1.309e-06
1.309e-06
1.309e-06
1.309e-06
1.309e-06
1.309e-06
1.309e-06
1.309e-06
1.309e-06
1.309e-06
1.309e-06
1.309e-06
1.309e-06
1.309e-06
</DataArray>
<DataArray type="Int32" Name="Id" NumberOfComponents="1" format="ascii">
3917
14223
33278
63916
68909
76069
109506
219614
248177
276037
276235
311758
333628
359441
359759
376079
396732
432590
440376
444056
447345
472071
544980
549746
571645
597708
622953
627953
713590
</DataArray>
<DataArray type="Float64" Name="velocity" NumberOfComponents="3" format="ascii">
1.06294e-13 -8.53112e-14 5.53092e-15
-1.11033e-13 3.8426e-14 -3.02114e-14
1.19011e-13 5.38344e-14 -4.26377e-14
-1.46649e-13 -4.43754e-13 -8.83186e-14
-1.37607e-14 -3.39904e-15 -4.9831e-15
3.39938e-14 4.0948e-14 1.69345e-15
-3.58976e-14 -2.16103e-15 6.20796e-14
-3.16414e-13 2.66363e-13 -5.86107e-14
5.47053e-14 -8.50604e-14 3.29537e-13
-1.15496e-14 1.95562e-14 8.46323e-15
-5.13528e-14 -2.14777e-15 -6.87047e-14
-3.70126e-13 1.14325e-13 3.25272e-14
-2.33072e-13 3.95388e-13 -9.80004e-14
-2.63395e-14 -4.63877e-14 -9.7995e-15
-2.57625e-14 8.29663e-14 -7.41643e-14
-1.69869e-13 -6.21663e-14 -4.45942e-14
2.2555e-13 1.24363e-13 2.33507e-14
-9.25821e-15 6.85389e-14 -4.878e-14
1.13942e-13 1.18113e-13 -5.49435e-15
9.12098e-14 4.89658e-14 -8.96795e-14
-3.93551e-13 -1.4909e-13 2.74239e-14
-7.81613e-15 -1.62215e-14 4.09203e-14
-2.65468e-14 2.15058e-13 -3.58316e-14
1.70775e-15 1.5807e-13 -2.10683e-14
1.57596e-13 -8.28768e-14 3.11208e-14
-6.27309e-14 -8.32482e-14 8.5903e-15
1.11927e-14 1.66355e-14 -1.98874e-14
1.39714e-13 -2.68131e-13 4.36435e-14
-4.22535e-14 1.49975e-14 -3.25673e-15
</DataArray>
<DataArray type="Float64" Name="angular velocity" NumberOfComponents="3" format="ascii">
-1.39006e+06 -4.32672e+06 944153
-1.02563e+06 4.08107e+06 -2.13377e+06
5.52234e+06 3.48241e+06 67102.1
3.30696e+06 4.51485e+06 -380200
4.65914e+06 1.967e+06 -4.3575e+06
-1.61618e+06 1.8844e+06 3.24868e+06
2.05849e+06 -4.57587e+06 2.47985e+06
-3.09107e+06 363148 -2.37569e+06
-2.18043e+06 1.7471e+06 4.12667e+06
2.26059e+06 -856665 5.91099e+06
1.78918e+06 672169 4.2103e+06
388034 2.59955e+06 90099.3
-362907 -468161 -1.07164e+06
190265 -2.45982e+06 2.90499e+06
3.88835e+06 -1.88096e+06 -7.51465e+06
1.02285e+06 -306321 3.92007e+06
-1.0045e+06 1.59027e+06 3.33167e+06
-774490 794873 69329.1
462899 -2.59034e+06 -521170
-1.72268e+06 -5.01249e+06 -2.53118e+06
-559240 2.91489e+06 -5.90158e+06
4.803e+06 796856 1.86941e+06
-2.47645e+06 82175.4 350734
1.55844e+06 -1.0725e+06 -2.12496e+06
567529 1.43815e+06 -1.03086e+06
1.47384e+06 5.80917e+06 3.54403e+06
3.62511e+06 860981 -1.5013e+06
-2.16164e+06 171537 -2.53218e+06
2.15323e+06 -2.17331e+06 -3.13971e+06
</DataArray>
<DataArray type="Float64" Name="displacement" NumberOfComponents="3" format="ascii">
-0.000203475 5.70859e-05 0.000375239
0.000403209 -4.38778e-05 0.000171546
0.000254938 0.000534288 0.000130573
-0.000304434 0.00053704 -0.000553543
-0.00043763 -0.000721927 -8.42222e-05
-0.000110869 3.6096e-05 7.27661e-05
0.000114686 -0.000605025 -0.000280359
-0.000156957 -0.000564978 -0.000530029
-0.000308882 -0.000461699 -0.000261908
0.000615063 0.000103537 -0.000305504
7.96884e-05 -0.000484586 -0.000101468
0.000227362 -0.000361654 -0.000122462
0.000112152 -0.000464758 -0.000703322
-0.000344618 -0.000352397 -0.000357441
-0.000434767 3.46735e-05 0.000393807
0.000263248 -6.52388e-05 -0.000319601
-0.00031872 -0.000520634 -2.46101e-05
-9.98703e-05 1.11277e-05 3.0455e-05
0.000150252 0.000423258 0.00023933
0.000673163 0.000104343 -0.000129548
-0.000280995 -0.000581406 0.000187681
-7.94123e-05 -0.000207353 -0.000339999
0.000287974 -0.000258389 0.000328597
0.000434915 8.3421e-05 -0.000336238
-0.000157888 0.00040875 -0.000489874
-0.000350175 -4.9291e-05 6.36741e-06
-0.000278726 0.00054616 -0.000108481
0.000213904 -0.000209628 -0.000278732
-0.000141302 -0.000220657 -0.000545699
</DataArray>
<DataArray type="Float64" Name="initial position" NumberOfComponents="3" format="ascii">
-0.00013923 -5.91974e-05 0.000198299
-0.000250241 0.000100476 0.000406735
-0.000424982 -0.000229551 0.000383808
6.02922e-06 -0.000171474 0.000614117
5.4103e-05 0.000446919 0.00045738
0.000159464 -0.000448816 0.000440682
-0.000195019 0.000336906 0.00098166
-0.000157869 0.000462688 0.000721416
0.000174651 0.000397239 0.000500536
-0.000434962 5.59796e-05 0.000783347
-5.90883e-06 5.69558e-05 0.00093637
8.6391e-05 0.00017804 0.000427586
1.48999e-06 1.93522e-05 0.000802027
0.000338653 -8.8056e-05 0.000632699
0.000147619 9.21443e-05 0.000466657
1.13352e-05 -1.03942e-05 0.000991236
-3.43816e-05 0.000430493 0.000154373
0.000129957 -3.12441e-05 0.000161444
-0.000201138 -0.000417881 0.000420078
-0.000248688 4.05601e-05 0.000225969
0.000334242 0.000119848 0.000340691
0.000338292 -0.000119669 0.000868497
-0.00018109 -9.40149e-05 0.000597384
-0.000287289 6.19408e-05 0.000979326
0.00017535 -0.000413416 0.000781193
0.000234784 -0.00022697 0.00050833
0.000211641 -0.000430592 0.000373268
-0.000209152 -1.44022e-05 0.000430084
-2.94972e-05 4.8911e-05 0.000977695
</DataArray>
<DataArray type="Int32" Name="proc_id" NumberOfComponents="1" format="ascii">
3
3
3
1
2
3
3
1
2
2
4
2
1
2
4
3
1
1
3
1
3
3
4
3
2
3
2
1
2
</DataArray>
</PointData>
<Cells>
<DataArray type="Int32" NumberOfComponents="1" Name="connectivity" format="ascii">
</DataArray><DataArray type="Int32" NumberOfComponents="1" Name="offsets" format="ascii">
</DataArray>
<DataArray type="UInt8" NumberOfComponents="1" Name="types" format="ascii">
</DataArray>
</Cells>
<CellData>
<DataArray type="Float64" Name="bondStrain" NumberOfComponents="1" format="ascii">
</DataArray>
<DataArray type="Int32" Name="bondTag" NumberOfComponents="1" format="ascii">
</DataArray>
</CellData>
</Piece>
</UnstructuredGrid>
</VTKFile>
